<?xml version="1.0"?>
<VTKFile type="RectilinearGrid" version="0.1" byte_order="LittleEndian">
<RectilinearGrid WholeExtent="0 45 0 41 0 4">
<Piece Extent="0 45 0 41 0 4">
<PointData>
<DataArray type="Float32" Name="PotentialFIT" format="ascii">
1.27477e-05
1.27612e-05
1.28002e-05
1.28456e-05
1.28996e-05
1.29539e-05
1.29867e-05
1.30646e-05
1.33548e-05
1.5145e-05
1.62159e-05
1.71544e-05
1.75172e-05
1.77442e-05
1.83546e-05
2.19698e-05
2.5633e-05
2.64219e-05
2.77371e-05
3.53966e-05
4.26508e-05
4.4715e-05
5.04434e-05
8.37317e-05
0.000241114
0.0022413
0.0237299
0.15903
0.293507
0.320344
0.354037
0.529394
0.716854
0.753643
0.804479
1.08334
1.36258
1.41643
1.47351
1.83627
2.14927
2.20189
2.21257
2.2315
2.24767
2.26004
1.26935e-05
1.27103e-05
1.27586e-05
1.28152e-05
1.28823e-05
1.29492e-05
1.29854e-05
1.30641e-05
1.33543e-05
1.51433e-05
1.62145e-05
1.71537e-05
1.75168e-05
1.77437e-05
1.83535e-05
2.19657e-05
2.56318e-05
2.64211e-05
2.77353e-05
3.53896e-05
4.26482e-05
4.47108e-05
5.04244e-05
8.36395e-05
0.000240937
0.00224015
0.0237218
0.158994
0.293495
0.320334
0.354011
0.529293
0.716824
0.753624
0.804437
1.08319
1.36254
1.41643
1.47353
1.83638
2.14931
2.20203
2.21345
2.23693
2.25709
2.27243
1.25048e-05
1.25326e-05
1.26132e-05
1.27081e-05
1.28211e-05
1.29322e-05
1.29806e-05
1.30618e-05
1.33506e-05
1.51291e-05
1.62022e-05
1.71475e-05
1.75125e-05
1.77386e-05
1.83435e-05
2.19311e-05
2.56202e-05
2.64129e-05
2.77189e-05
3.533e-05
4.26255e-05
4.46807e-05
5.03017e-05
8.30374e-05
0.000239605
0.00223103
0.0236538
0.158679
0.293373
0.320229
0.353772
0.528431
0.71653
0.753416
0.804054
1.08186
1.36216
1.41636
1.47369
1.83717
2.14957
2.20256
2.21657
2.25613
2.29018
2.31553
1.20935e-05
1.21434e-05
1.22899e-05
1.24665e-05
1.26808e-05
1.28924e-05
1.29675e-05
1.30517e-05
1.33279e-05
1.5034e-05
1.6113e-05
1.70941e-05
1.74686e-05
1.76878e-05
1.82594e-05
2.16758e-05
2.55106e-05
2.63233e-05
2.75803e-05
3.48938e-05
4.24272e-05
4.44676e-05
4.9677e-05
8.00826e-05
0.000231869
0.00217269
0.0231808
0.15635
0.292123
0.319104
0.351846
0.522058
0.713617
0.751079
0.800768
1.07202
1.35863
1.41551
1.47511
1.84249
2.15103
2.20408
2.2239
2.29994
2.36407
2.40943
1.12829e-05
1.13659e-05
1.16186e-05
1.19421e-05
1.23591e-05
1.27908e-05
1.29209e-05
1.29978e-05
1.31938e-05
1.44338e-05
1.54433e-05
1.65558e-05
1.69294e-05
1.70914e-05
1.74803e-05
1.98592e-05
2.429e-05
2.52e-05
2.62713e-05
3.18009e-05
4.03159e-05
4.24131e-05
4.63638e-05
6.79544e-05
0.00019505
0.00185683
0.0202297
0.139757
0.276758
0.30515
0.335279
0.476629
0.67942
0.721039
0.769668
1.00125
1.31857
1.4042
1.49205
1.87806
2.16065
2.21076
2.24264
2.39764
2.51819
2.59425
1.05046e-05
1.05994e-05
1.0899e-05
1.13138e-05
1.19037e-05
1.25898e-05
1.27759e-05
1.28291e-05
1.28623e-05
1.29812e-05
1.31865e-05
1.33956e-05
1.34072e-05
1.33274e-05
1.34409e-05
1.45831e-05
1.6639e-05
1.78668e-05
1.94251e-05
2.28492e-05
2.72174e-05
2.99835e-05
3.4228e-05
4.97615e-05
0.000138575
0.00129295
0.0137464
0.0922138
0.171688
0.21466
0.25976
0.344747
0.455285
0.522054
0.609825
0.790591
1.05049
1.32755
1.62012
1.98278
2.19466
2.23788
2.28212
2.52265
2.68328
2.77213
9.76186e-06
9.85121e-06
1.01388e-05
1.05566e-05
1.12038e-05
1.20903e-05
1.23138e-05
1.23508e-05
1.22732e-05
1.1612e-05
1.13687e-05
1.11242e-05
1.06904e-05
1.01407e-05
9.65804e-06
9.95855e-06
1.09525e-05
1.18867e-05
1.31278e-05
1.52431e-05
1.77414e-05
1.99528e-05
2.33706e-05
3.42527e-05
9.39397e-05
0.000856438
0.00888949
0.0584402
0.10705
0.141969
0.178533
0.230994
0.296761
0.353323
0.433244
0.579356
0.828822
1.2591
1.70923
2.12739
2.28622
2.33313
2.38973
2.68915
2.85755
2.94296
8.98497e-06
9.05616e-06
9.2824e-06
9.59733e-06
1.00422e-05
1.05466e-05
1.07627e-05
1.07925e-05
1.0664e-05
1.00868e-05
9.68984e-06
9.19072e-06
8.34884e-06
7.217e-06
5.88117e-06
5.59062e-06
5.97098e-06
6.49221e-06
7.21564e-06
8.32539e-06
9.60244e-06
1.09433e-05
1.31973e-05
2.03603e-05
5.77821e-05
0.000505088
0.00497178
0.031031
0.0565476
0.0772153
0.0988368
0.126507
0.160832
0.195597
0.248241
0.350012
0.576196
1.19338
1.81441
2.36163
2.57427
2.66097
2.73874
2.92877
3.0549
3.12281
8.13944e-06
8.18487e-06
8.32637e-06
8.51336e-06
8.75639e-06
9.00221e-06
9.13506e-06
9.14746e-06
9.03461e-06
8.59333e-06
8.14512e-06
7.49216e-06
6.31944e-06
4.59193e-06
2.07348e-06
1.5493e-06
1.5719e-06
1.70061e-06
1.89431e-06
2.17937e-06
2.51013e-06
2.92747e-06
3.91025e-06
8.00005e-06
2.97869e-05
0.000235102
0.0019015
0.0081219
0.0145627
0.0201601
0.0260324
0.0331618
0.042022
0.0519831
0.0691245
0.111727
0.266758
1.14155
1.95806
2.69948
2.94038
3.0343
3.09964
3.20127
3.27619
3.31935
7.02329e-06
7.03233e-06
7.06009e-06
7.09564e-06
7.13982e-06
7.18222e-06
7.20587e-06
7.20256e-06
7.15912e-06
6.95197e-06
6.53465e-06
5.82145e-06
4.5599e-06
2.89264e-06
8.67213e-07
3.81928e-07
3.21366e-07
3.36682e-07
3.74269e-07
4.29805e-07
4.97603e-07
6.09217e-07
9.69045e-07
2.58291e-06
1.04323e-05
7.23809e-05
0.000480909
0.00160749
0.00282899
0.00396069
0.00515477
0.00655229
0.0083478
0.0108893
0.0177033
0.0460925
0.196803
1.18038
2.21031
3.31395
3.48219
3.52153
3.53841
3.5574
3.57177
3.58036
6.80729e-06
6.80962e-06
6.81669e-06
6.82545e-06
6.8359e-06
6.84523e-06
6.84891e-06
6.84026e-06
6.79951e-06
6.56196e-06
5.91383e-06
5.05939e-06
3.76726e-06
2.24483e-06
5.73027e-07
1.578e-07
9.25696e-08
8.83002e-08
9.69604e-08
1.11257e-07
1.30423e-07
1.71011e-07
3.25497e-07
1.00868e-06
4.05579e-06
2.53308e-05
0.000145368
0.000417591
0.000722619
0.00101974
0.0013365
0.00170592
0.00224009
0.00340755
0.00849704
0.0356551
0.192704
1.23392
2.33587
3.43281
3.58918
3.61891
3.62658
3.63175
3.63545
3.63769
6.70909e-06
6.70967e-06
6.71141e-06
6.71345e-06
6.71563e-06
6.71687e-06
6.71465e-06
6.70189e-06
6.65319e-06
6.36042e-06
5.52842e-06
4.56175e-06
3.26545e-06
1.87532e-06
4.47772e-07
9.14487e-08
3.21999e-08
2.396e-08
2.51654e-08
2.88126e-08
3.45484e-08
4.97466e-08
1.12377e-07
3.77341e-07
1.46509e-06
8.31049e-06
4.21101e-05
0.000108241
0.000184303
0.000261852
0.000346871
0.000454197
0.000670942
0.0015067
0.00636811
0.0345348
0.200534
1.30128
2.44773
3.49459
3.64844
3.67803
3.68419
3.68633
3.68746
3.68808
6.51996e-06
6.52007e-06
6.52037e-06
6.52056e-06
6.52032e-06
6.51869e-06
6.51277e-06
6.49387e-06
6.43228e-06
6.09097e-06
5.14208e-06
4.13897e-06
2.89162e-06
1.62776e-06
3.78539e-07
6.76897e-08
1.53144e-08
6.92042e-09
6.26574e-09
7.07389e-09
8.80211e-09
1.43246e-08
3.76485e-08
1.30615e-07
4.82083e-07
2.48905e-06
1.12439e-05
2.63934e-05
4.42386e-05
6.3457e-05
8.67319e-05
0.000126784
0.000267002
0.00105511
0.00613279
0.036208
0.214106
1.39218
2.60042
3.61199
3.78614
3.82658
3.83586
3.83825
3.83902
3.83929
5.43293e-06
5.43285e-06
5.43247e-06
5.43145e-06
5.42878e-06
5.42198e-06
5.40416e-06
5.35867e-06
5.2444e-06
4.81476e-06
4.20733e-06
3.45776e-06
2.43236e-06
1.36634e-06
3.15343e-07
5.38193e-08
9.59393e-09
2.2248e-09
1.22372e-09
1.25101e-09
1.63443e-09
3.08055e-09
9.09902e-09
3.14254e-08
1.08985e-07
5.11706e-07
2.07283e-06
4.51209e-06
7.49134e-06
1.11941e-05
1.81956e-05
4.24035e-05
0.000174026
0.00102737
0.00669606
0.0405437
0.241512
1.57667
2.98064
4.24484
4.60713
4.7168
4.7456
4.75308
4.75519
4.75572
4.34204e-06
4.34202e-06
4.3419e-06
4.34162e-06
4.34087e-06
4.33893e-06
4.33355e-06
4.31857e-06
4.27534e-06
4.06938e-06
3.5949e-06
2.97375e-06
2.09767e-06
1.1781e-06
2.71428e-07
4.58498e-08
7.6962e-09
1.29494e-09
3.52226e-10
2.48075e-10
3.24217e-10
6.91057e-10
2.1753e-09
7.32955e-09
2.39901e-08
1.03957e-07
3.86228e-07
8.03352e-07
1.37976e-06
2.52649e-06
7.13844e-06
3.086e-05
0.000174592
0.00113089
0.00752917
0.0459015
0.274828
1.80543
3.50262
5.34158
5.61213
5.66625
5.67719
5.67962
5.68025
5.68039
4.14699e-06
4.14698e-06
4.14693e-06
4.14681e-06
4.14647e-06
4.14551e-06
4.14251e-06
4.13273e-06
4.09894e-06
3.90415e-06
3.3693e-06
2.73843e-06
1.90765e-06
1.06435e-06
2.44402e-07
4.10876e-08
6.7946e-09
1.04687e-09
1.882e-10
6.80157e-11
7.27878e-11
1.66482e-10
5.38565e-10
1.7527e-09
5.43224e-09
2.19709e-08
7.69717e-08
1.64168e-07
3.4926e-07
1.10894e-06
5.64297e-06
3.12037e-05
0.000188855
0.00124127
0.00828225
0.0504608
0.30161
1.97586
3.78501
5.55888
5.81256
5.85873
5.86695
5.86857
5.86895
5.86903
4.0234e-06
4.02338e-06
4.0233e-06
4.0231e-06
4.02257e-06
4.02117e-06
4.0171e-06
4.00474e-06
3.96467e-06
3.74313e-06
3.13652e-06
2.49074e-06
1.70539e-06
9.42757e-07
2.15526e-07
3.60709e-08
5.9276e-09
8.92177e-10
1.39278e-10
2.78948e-11
1.42281e-11
2.83017e-11
9.08442e-11
2.85434e-10
8.51606e-10
3.3787e-09
1.30757e-08
4.07699e-08
1.64302e-07
9.31181e-07
6.00472e-06
3.51314e-05
0.000215358
0.00141857
0.00945803
0.0575
0.342511
2.23256
4.18663
5.81877
6.09721
6.16114
6.17548
6.17887
6.17976
6.17997
3.47455e-06
3.47447e-06
3.47415e-06
3.47341e-06
3.47156e-06
3.46701e-06
3.4552e-06
3.42515e-06
3.34965e-06
3.06567e-06
2.665e-06
2.17463e-06
1.51495e-06
8.44017e-07
1.93563e-07
3.24701e-08
5.34229e-09
8.02614e-10
1.22687e-10
2.10201e-11
5.57796e-12
6.67808e-12
2.04375e-11
6.40307e-11
1.97896e-10
9.16246e-10
5.37652e-09
2.77787e-08
1.5338e-07
9.84334e-07
6.56344e-06
3.87691e-05
0.000238879
0.00158067
0.0105893
0.0647055
0.387548
2.54154
4.86972
7.04519
7.66879
7.85697
7.90614
7.91879
7.92229
7.92313
2.93092e-06
2.9309e-06
2.93081e-06
2.93062e-06
2.93012e-06
2.92884e-06
2.92529e-06
2.91529e-06
2.88584e-06
2.74122e-06
2.39379e-06
1.96153e-06
1.37229e-06
7.66545e-07
1.76026e-07
2.95645e-08
4.86884e-09
7.31684e-10
1.11431e-10
1.83942e-11
3.56415e-12
1.8937e-12
5.12219e-12
1.79039e-11
6.89277e-11
4.68767e-10
4.18863e-09
2.67925e-08
1.5938e-07
1.0479e-06
7.0467e-06
4.18338e-05
0.000259017
0.00172342
0.01162
0.0715317
0.432169
2.86478
5.71725
9.04601
9.53206
9.62733
9.64608
9.65014
9.65115
9.65137
2.83647e-06
2.83646e-06
2.83643e-06
2.83634e-06
2.83611e-06
2.83546e-06
2.83341e-06
2.82665e-06
2.80308e-06
2.6661e-06
2.28828e-06
1.84955e-06
1.28151e-06
7.12451e-07
1.63265e-07
2.7374e-08
4.50218e-09
6.75847e-10
1.02764e-10
1.68145e-11
2.9626e-12
8.28855e-13
1.86506e-12
8.53027e-12
4.41197e-11
3.90318e-10
4.03145e-09
2.69961e-08
1.6279e-07
1.07549e-06
7.24966e-06
4.31206e-05
0.000267495
0.00178349
0.0120506
0.0743331
0.449893
2.98612
5.96877
9.32455
9.79657
9.87922
9.89309
9.89563
9.89619
9.8963
2.79676e-06
2.79674e-06
2.79668e-06
2.79652e-06
2.79612e-06
2.79506e-06
2.79204e-06
2.78309e-06
2.75491e-06
2.60413e-06
2.20345e-06
1.7633e-06
1.21371e-06
6.72594e-07
1.53912e-07
2.57741e-08
4.23483e-09
6.3519e-10
9.65054e-11
1.5757e-11
2.71845e-12
6.02444e-13
1.22958e-12
6.68097e-12
3.87855e-11
3.66751e-10
3.88732e-09
2.61839e-08
1.57984e-07
1.04278e-06
7.01882e-06
4.16789e-05
0.000258091
0.00171745
0.0115811
0.0713008
0.430834
2.85641
5.7041
9.03697
9.5229
9.618
9.63671
9.64075
9.64176
9.64199
2.63755e-06
2.6375e-06
2.63725e-06
2.63668e-06
2.63527e-06
2.6318e-06
2.62278e-06
2.59987e-06
2.54235e-06
2.32615e-06
2.02133e-06
1.64879e-06
1.14823e-06
6.39552e-07
1.4665e-07
2.45956e-08
4.04545e-09
6.07216e-10
9.22962e-11
1.50701e-11
2.59058e-12
5.44652e-13
1.07343e-12
6.06471e-12
3.5945e-11
3.42992e-10
3.6408e-09
2.44812e-08
1.47331e-07
9.69379e-07
6.50078e-06
3.84459e-05
0.000236972
0.00156832
0.0105077
0.0642133
0.384628
2.52252
4.83378
6.99242
7.61167
7.79872
7.84764
7.86024
7.86373
7.86456
2.48018e-06
2.48016e-06
2.4801e-06
2.47994e-06
2.47955e-06
2.47854e-06
2.4757e-06
2.46749e-06
2.4425e-06
2.31432e-06
1.98926e-06
1.611e-06
1.11805e-06
6.22082e-07
1.42605e-07
2.39158e-08
3.93395e-09
5.90569e-10
8.97824e-11
1.4664e-11
2.52481e-12
5.37682e-13
1.04027e-12
5.711e-12
3.333e-11
3.15114e-10
3.32725e-09
2.22972e-08
1.33798e-07
8.77638e-07
5.86598e-06
3.45705e-05
0.000212279
0.00139895
0.00932903
0.0567222
0.337897
2.20242
4.12827
5.7216
5.99767
6.06195
6.07651
6.07997
6.08089
6.0811
2.45821e-06
2.45821e-06
2.45818e-06
2.4581e-06
2.4579e-06
2.45734e-06
2.45556e-06
2.4497e-06
2.42926e-06
2.3105e-06
1.98298e-06
1.60269e-06
1.1104e-06
6.17298e-07
1.41456e-07
2.37169e-08
3.9006e-09
5.85522e-10
8.90228e-11
1.45562e-11
2.54137e-12
6.36611e-13
1.30803e-12
6.15601e-12
3.25143e-11
2.90041e-10
2.98819e-09
1.98715e-08
1.18879e-07
7.78374e-07
5.19577e-06
3.05927e-05
0.000187752
0.00123723
0.00825559
0.0502684
0.300202
1.96448
3.7476
5.45848
5.70444
5.74955
5.75766
5.75926
5.75963
5.75971
2.48366e-06
2.48365e-06
2.48359e-06
2.48343e-06
2.48304e-06
2.48202e-06
2.47916e-06
2.47093e-06
2.44593e-06
2.31796e-06
1.99441e-06
1.61645e-06
1.12248e-06
6.24748e-07
1.43238e-07
2.40257e-08
3.95263e-09
5.9351e-10
9.03097e-11
1.48604e-11
2.78778e-12
1.23804e-12
3.16256e-12
1.12885e-11
4.45997e-11
3.10085e-10
2.79038e-09
1.77799e-08
1.0507e-07
6.85462e-07
4.57134e-06
2.69146e-05
0.000165249
0.00108997
0.00728442
0.0444584
0.266374
1.7512
3.40649
5.22014
5.48458
5.53673
5.54712
5.5494
5.54997
5.5501
2.65932e-06
2.65926e-06
2.65901e-06
2.65844e-06
2.65702e-06
2.65352e-06
2.64444e-06
2.62137e-06
2.56344e-06
2.34569e-06
2.03864e-06
1.66326e-06
1.15862e-06
6.4548e-07
1.4803e-07
2.48316e-08
4.08539e-09
6.13678e-10
9.36981e-11
1.589e-11
3.88993e-12
4.03607e-12
1.21756e-11
3.85359e-11
1.20655e-10
5.67345e-10
3.36125e-09
1.73366e-08
9.52469e-08
6.07844e-07
4.02988e-06
2.36727e-05
0.000145077
0.000954852
0.00636372
0.0386995
0.230766
1.50707
2.85119
4.06338
4.41012
4.51481
4.5422
4.54926
4.55121
4.55168
2.8368e-06
2.83678e-06
2.83672e-06
2.83656e-06
2.83616e-06
2.83509e-06
2.83204e-06
2.823e-06
2.79449e-06
2.64162e-06
2.23442e-06
1.788e-06
1.23103e-06
6.82415e-07
1.56198e-07
2.61673e-08
4.30292e-09
6.47606e-10
1.00688e-10
1.95411e-11
8.9449e-12
1.67177e-11
5.35833e-11
1.6984e-10
5.1213e-10
2.05789e-09
8.03028e-09
2.48567e-08
9.889e-08
5.5606e-07
3.57057e-06
2.08203e-05
0.000127239
0.000835704
0.00555701
0.0337041
0.200347
1.3034
2.42976
3.35084
3.50909
3.54565
3.55388
3.55583
3.55635
3.55647
2.88003e-06
2.88002e-06
2.87999e-06
2.87991e-06
2.87968e-06
2.87903e-06
2.87697e-06
2.87018e-06
2.84644e-06
2.70828e-06
2.32679e-06
1.88301e-06
1.30674e-06
7.27395e-07
1.66827e-07
2.80083e-08
4.6223e-09
7.06834e-10
1.21719e-10
3.81634e-11
3.62338e-11
8.0253e-11
2.59172e-10
8.48784e-10
2.65453e-09
1.08804e-08
3.88173e-08
8.44988e-08
1.86152e-07
6.27061e-07
3.3126e-06
1.8484e-05
0.000111936
0.000734645
0.00489251
0.0297494
0.177457
1.16005
2.20617
3.20248
3.3455
3.37167
3.37636
3.37729
3.3775
3.37755
2.97818e-06
2.97817e-06
2.9781e-06
2.97792e-06
2.97744e-06
2.97619e-06
2.97268e-06
2.96276e-06
2.93347e-06
2.78943e-06
2.44323e-06
2.00878e-06
1.41096e-06
7.9063e-07
1.81948e-07
3.06924e-08
5.13789e-09
8.53991e-10
2.21924e-10
1.48953e-10
1.90142e-10
3.96996e-10
1.24277e-09
4.21436e-09
1.39421e-08
6.13571e-08
2.32187e-07
4.87512e-07
8.29805e-07
1.48593e-06
4.14095e-06
1.78239e-05
0.000100634
0.000651217
0.00433327
0.0264076
0.158069
1.03824
2.01359
3.07025
3.22494
3.25559
3.26172
3.26308
3.26343
3.26351
3.54137e-06
3.54133e-06
3.54109e-06
3.54045e-06
3.53873e-06
3.53434e-06
3.52274e-06
3.4931e-06
3.4185e-06
3.1376e-06
2.74012e-06
2.24962e-06
1.58003e-06
8.86373e-07
2.04381e-07
3.48278e-08
6.18656e-09
1.41665e-09
7.64455e-10
7.76085e-10
1.00147e-09
1.83269e-09
5.32509e-09
1.84808e-08
6.49664e-08
3.11503e-07
1.29594e-06
2.87282e-06
4.73933e-06
6.90717e-06
1.09747e-05
2.50243e-05
0.000100672
0.000589874
0.00383934
0.0232402
0.13842
0.903577
1.70784
2.43208
2.63922
2.70177
2.71816
2.72242
2.72363
2.72393
4.10601e-06
4.10611e-06
4.10636e-06
4.10656e-06
4.10652e-06
4.10559e-06
4.10193e-06
4.0901e-06
4.05144e-06
3.83769e-06
3.24904e-06
2.61645e-06
1.82519e-06
1.02551e-06
2.38137e-07
4.24887e-08
9.59821e-09
4.32326e-09
3.89376e-09
4.40104e-09
5.44184e-09
8.58678e-09
2.1951e-08
7.60606e-08
2.84285e-07
1.50154e-06
7.00137e-06
1.68827e-05
2.81682e-05
3.93448e-05
5.289e-05
7.69383e-05
0.000158275
0.000607773
0.00350555
0.0206754
0.122224
0.794559
1.4831
2.05933
2.15698
2.17935
2.18445
2.18581
2.18628
2.18646
4.21778e-06
4.21851e-06
4.22068e-06
4.22333e-06
4.22637e-06
4.22875e-06
4.2284e-06
4.22111e-06
4.19211e-06
4.01981e-06
3.53797e-06
2.95239e-06
2.13519e-06
1.23621e-06
2.99267e-07
6.58676e-08
2.77411e-08
2.29301e-08
2.44582e-08
2.81625e-08
3.35651e-08
4.60294e-08
9.70689e-08
3.19402e-07
1.26481e-06
7.48565e-06
4.01884e-05
0.000109061
0.000185664
0.00025533
0.000331096
0.000430337
0.000598442
0.00109989
0.00382792
0.0194399
0.111284
0.721201
1.36459
1.97995
2.06853
2.08517
2.08886
2.09073
2.09195
2.09267
4.35107e-06
4.35592e-06
4.37079e-06
4.38972e-06
4.41312e-06
4.43515e-06
4.44559e-06
4.4408e-06
4.41136e-06
4.2696e-06
3.96495e-06
3.48982e-06
2.68744e-06
1.6648e-06
4.68534e-07
1.80077e-07
1.42285e-07
1.46089e-07
1.60887e-07
1.85831e-07
2.17211e-07
2.67497e-07
4.45309e-07
1.26421e-06
5.1694e-06
3.49409e-05
0.00022363
0.000719647
0.0012546
0.0017
0.00217409
0.00279347
0.00359983
0.00468456
0.00798893
0.0233233
0.108165
0.668027
1.26139
1.8996
1.99692
2.01928
2.02819
2.03852
2.04634
2.05103
4.98355e-06
5.01018e-06
5.09293e-06
5.20197e-06
5.34379e-06
5.48721e-06
5.55146e-06
5.54727e-06
5.46898e-06
5.16451e-06
4.85558e-06
4.41818e-06
3.65037e-06
2.55524e-06
1.04445e-06
7.36808e-07
7.49453e-07
8.03256e-07
8.85651e-07
1.02627e-06
1.19487e-06
1.38214e-06
1.86976e-06
4.0677e-06
1.57533e-05
0.00012236
0.000962169
0.00396718
0.0070918
0.00943586
0.0119133
0.0153982
0.019786
0.0239643
0.0312814
0.0518275
0.134753
0.636001
1.10776
1.53159
1.6774
1.73291
1.76836
1.82916
1.87368
1.89941
5.91171e-06
5.96783e-06
6.14892e-06
6.41038e-06
6.8026e-06
7.29664e-06
7.42033e-06
7.43739e-06
7.38454e-06
6.9645e-06
6.78353e-06
6.60167e-06
6.29077e-06
5.91911e-06
5.59257e-06
5.77173e-06
6.37803e-06
6.86658e-06
7.52457e-06
8.7656e-06
1.0271e-05
1.14593e-05
1.33273e-05
1.95627e-05
5.39797e-05
0.00049377
0.0051434
0.0339183
0.0624239
0.0809533
0.100444
0.131321
0.170648
0.201356
0.245087
0.328903
0.470207
0.711039
0.960966
1.19764
1.29101
1.31364
1.34363
1.51839
1.62445
1.67884
6.73056e-06
6.77613e-06
6.91467e-06
7.09236e-06
7.3224e-06
7.56296e-06
7.63548e-06
7.67993e-06
7.79602e-06
8.52721e-06
9.10893e-06
9.73441e-06
9.93783e-06
1.00188e-05
1.02328e-05
1.16264e-05
1.4175e-05
1.46741e-05
1.52685e-05
1.85169e-05
2.33997e-05
2.45634e-05
2.68534e-05
3.97168e-05
0.000114543
0.00108929
0.0118417
0.0815508
0.160013
0.175401
0.191902
0.273915
0.389841
0.412238
0.438344
0.570948
0.753381
0.800885
0.849701
1.07529
1.24004
1.26927
1.28746
1.37592
1.44395
1.48675
7.10852e-06
7.13957e-06
7.2313e-06
7.34294e-06
7.47967e-06
7.6156e-06
7.66237e-06
7.71047e-06
7.86464e-06
8.81821e-06
9.4313e-06
9.99439e-06
1.02076e-05
1.03294e-05
1.06467e-05
1.25559e-05
1.47816e-05
1.5249e-05
1.59551e-05
2.00698e-05
2.44311e-05
2.55949e-05
2.85012e-05
4.548e-05
0.000131611
0.00123513
0.0131992
0.0891513
0.167012
0.182387
0.200781
0.296576
0.406269
0.427605
0.455579
0.608633
0.774094
0.807303
0.842314
1.05637
1.23418
1.26487
1.27732
1.32751
1.3693
1.39829
7.32189e-06
7.34216e-06
7.40117e-06
7.47122e-06
7.55511e-06
7.63756e-06
7.67023e-06
7.71728e-06
7.88001e-06
8.88186e-06
9.49164e-06
1.00316e-05
1.02399e-05
1.03678e-05
1.07092e-05
1.2739e-05
1.48616e-05
1.53164e-05
1.6057e-05
2.03763e-05
2.45717e-05
2.57423e-05
2.88965e-05
4.72929e-05
0.000136413
0.00127182
0.0135002
0.0906458
0.167855
0.183212
0.202192
0.301033
0.408346
0.429377
0.458127
0.615987
0.776774
0.808017
0.841362
1.05246
1.23307
1.26386
1.27316
1.30344
1.32936
1.3483
7.44707e-06
7.46029e-06
7.49848e-06
7.5433e-06
7.59655e-06
7.64913e-06
7.67369e-06
7.71927e-06
7.88367e-06
8.89633e-06
9.50432e-06
1.00383e-05
1.02447e-05
1.03737e-05
1.07207e-05
1.27774e-05
1.48748e-05
1.53262e-05
1.60754e-05
2.04409e-05
2.45964e-05
2.57722e-05
2.90091e-05
4.7842e-05
0.000137679
0.00128067
0.0135671
0.0909585
0.167984
0.183331
0.202458
0.301966
0.408677
0.429627
0.458584
0.617521
0.777222
0.808112
0.841188
1.05158
1.2328
1.26345
1.27096
1.29009
1.30657
1.31895
7.51475e-06
7.52397e-06
7.55053e-06
7.58156e-06
7.61837e-06
7.65514e-06
7.67536e-06
7.71994e-06
7.88455e-06
8.89951e-06
9.507e-06
1.00396e-05
1.02455e-05
1.03747e-05
1.07229e-05
1.27852e-05
1.48771e-05
1.53277e-05
1.60789e-05
2.04543e-05
2.46012e-05
2.57792e-05
2.904e-05
4.79922e-05
0.000137979
0.00128264
0.0135812
0.0910225
0.168006
0.183351
0.202509
0.302157
0.408735
0.429666
0.458669
0.617834
0.777304
0.808126
0.841151
1.05138
1.23273
1.26327
1.26982
1.28306
1.29442
1.30307
7.53783e-06
7.54567e-06
7.56822e-06
7.59453e-06
7.62575e-06
7.65716e-06
7.67591e-06
7.72013e-06
7.88473e-06
8.90013e-06
9.50751e-06
1.00398e-05
1.02457e-05
1.03749e-05
1.07233e-05
1.27867e-05
1.48776e-05
1.5328e-05
1.60795e-05
2.04567e-05
2.46021e-05
2.57806e-05
2.90468e-05
4.80253e-05
0.000138039
0.00128301
0.0135839
0.0910344
0.16801
0.183354
0.202519
0.302192
0.408745
0.429673
0.458684
0.617891
0.777318
0.808128
0.841144
1.05134
1.23271
1.2632
1.26944
1.28069
1.2903
1.29765
7.54523e-06
7.55262e-06
7.57387e-06
7.59867e-06
7.62811e-06
7.65781e-06
7.67608e-06
7.72019e-06
7.88478e-06
8.90028e-06
9.50763e-06
1.00399e-05
1.02457e-05
1.0375e-05
1.07234e-05
1.2787e-05
1.48776e-05
1.5328e-05
1.60797e-05
2.04573e-05
2.46024e-05
2.5781e-05
2.90486e-05
4.80337e-05
0.000138053
0.0012831
0.0135845
0.091037
0.168011
0.183354
0.202521
0.302201
0.408747
0.429674
0.458688
0.617904
0.777321
0.808128
0.841142
1.05133
1.2327
1.26319
1.26932
1.27993
1.28898
1.29592
1.27477e-05
1.27612e-05
1.28003e-05
1.28462e-05
1.29021e-05
1.29659e-05
1.29659e-05
1.29659e-05
1.29659e-05
1.51176e-05
1.63146e-05
1.75836e-05
1.75836e-05
1.75836e-05
1.75836e-05
2.19588e-05
2.63131e-05
2.63131e-05
2.63131e-05
3.53921e-05
4.39579e-05
4.39579e-05
4.39579e-05
5.38239e-05
0
0
0
0.159235
0.318927
0.318927
0.318927
0.529007
0.750741
0.750741
0.750741
1.08328
1.41577
1.41577
1.41577
1.8375
2.21054
2.21054
2.21054
2.23126
2.24765
2.26004
1.26935e-05
1.27103e-05
1.27588e-05
1.2816e-05
1.28858e-05
1.29659e-05
1.29659e-05
1.29659e-05
1.29659e-05
1.51159e-05
1.63134e-05
1.75836e-05
1.75836e-05
1.75836e-05
1.75836e-05
2.19552e-05
2.63131e-05
2.63131e-05
2.63131e-05
3.53857e-05
4.39579e-05
4.39579e-05
4.39579e-05
5.37603e-05
0
0
0
0.159201
0.318927
0.318927
0.318927
0.528916
0.750741
0.750741
0.750741
1.08314
1.41577
1.41577
1.41577
1.8376
2.21054
2.21054
2.21054
2.23659
2.25706
2.27243
1.25048e-05
1.25327e-05
1.26135e-05
1.27096e-05
1.28282e-05
1.29659e-05
1.29659e-05
1.29659e-05
1.29659e-05
1.5103e-05
1.63034e-05
1.75836e-05
1.75836e-05
1.75836e-05
1.75836e-05
2.19241e-05
2.63131e-05
2.63131e-05
2.63131e-05
3.53325e-05
4.39579e-05
4.39579e-05
4.39579e-05
5.33644e-05
0
0
0
0.158918
0.318927
0.318927
0.318927
0.528141
0.750741
0.750741
0.750741
1.08194
1.41577
1.41577
1.41577
1.83833
2.21054
2.21054
2.21054
2.25542
2.29011
2.31552
1.20935e-05
1.21435e-05
1.22906e-05
1.247e-05
1.26966e-05
1.29659e-05
1.29659e-05
1.29659e-05
1.29659e-05
1.50159e-05
1.62318e-05
1.75836e-05
1.75836e-05
1.75836e-05
1.75836e-05
2.16983e-05
2.63131e-05
2.63131e-05
2.63131e-05
3.49477e-05
4.39579e-05
4.39579e-05
4.39579e-05
5.15398e-05
0
0
0
0.15685
0.318927
0.318927
0.318927
0.522504
0.750741
0.750741
0.750741
1.07313
1.41577
1.41577
1.41577
1.84326
2.21054
2.21054
2.21054
2.29834
2.36391
2.40941
1.12829e-05
1.13662e-05
1.16204e-05
1.19507e-05
1.23977e-05
1.29659e-05
1.29659e-05
1.29659e-05
1.29659e-05
1.44594e-05
1.56872e-05
1.75836e-05
1.75836e-05
1.75836e-05
1.75836e-05
2.00885e-05
2.63131e-05
2.63131e-05
2.63131e-05
3.22103e-05
4.39579e-05
4.39579e-05
4.39579e-05
4.44249e-05
0
0
0
0.142045
0.318927
0.318927
0.318927
0.482288
0.750741
0.750741
0.750741
1.00966
1.41577
1.41577
1.41577
1.87634
2.21054
2.21054
2.21054
2.39363
2.51778
2.59422
1.05044e-05
1.05996e-05
1.09021e-05
1.13312e-05
1.19862e-05
1.29659e-05
1.29659e-05
1.29659e-05
1.29659e-05
1.30124e-05
1.32357e-05
1.35026e-05
1.34896e-05
1.33829e-05
1.34527e-05
1.46199e-05
1.68567e-05
1.79941e-05
1.94347e-05
2.29166e-05
2.75867e-05
2.99713e-05
3.22085e-05
3.28202e-05
0
0
0
0.091435
0.176091
0.216236
0.258116
0.345699
0.462939
0.525354
0.607719
0.791378
1.05952
1.32853
1.61192
1.98263
2.21054
2.21054
2.21054
2.5138
2.68249
2.77213
9.76008e-06
9.84984e-06
1.01412e-05
1.05806e-05
1.1349e-05
1.29659e-05
1.29659e-05
1.29659e-05
1.29659e-05
1.16872e-05
1.13929e-05
1.11428e-05
1.06982e-05
1.01244e-05
9.58893e-06
9.89854e-06
1.09203e-05
1.18355e-05
1.30486e-05
1.51625e-05
1.76807e-05
1.97046e-05
2.17923e-05
2.24679e-05
0
0
0
0.0572153
0.107071
0.141372
0.177157
0.229772
0.29621
0.351587
0.429687
0.574179
0.820944
1.25711
1.7075
2.1224
2.21054
2.21054
2.21054
2.67352
2.85677
2.94329
8.97606e-06
9.04724e-06
9.27469e-06
9.59774e-06
1.00777e-05
1.06927e-05
1.08897e-05
1.09118e-05
1.07865e-05
1.0107e-05
9.69522e-06
9.18927e-06
8.32638e-06
7.11221e-06
5.49099e-06
5.25705e-06
5.64091e-06
6.13332e-06
6.81137e-06
7.86256e-06
9.06912e-06
1.02319e-05
1.15542e-05
1.22584e-05
0
0
0
0.028795
0.0535466
0.0729688
0.0932214
0.11947
0.152097
0.184477
0.232851
0.324715
0.526001
1.18528
1.81473
2.36753
2.56389
2.63889
2.70731
2.92573
3.05657
3.12477
8.09855e-06
8.14275e-06
8.28088e-06
8.46537e-06
8.71017e-06
8.96672e-06
9.09616e-06
9.10816e-06
9.00113e-06
8.57046e-06
8.13535e-06
7.47963e-06
6.26154e-06
4.26821e-06
0
0
0
0
0
0
0
0
0
0
0
0
0
0
0
0
0
0
0
0
0
0
0
1.11787
1.96255
2.74183
2.96224
3.04739
3.10863
3.21231
3.28642
3.32849
6.75102e-06
6.75102e-06
6.75102e-06
6.75102e-06
6.75102e-06
6.75102e-06
6.75102e-06
6.75102e-06
6.75102e-06
6.75102e-06
6.49607e-06
5.80742e-06
4.52226e-06
2.71915e-06
0
0
0
0
0
0
0
0
0
0
0
0
0
0
0
0
0
0
0
0
0
0
0
1.16131
2.23595
3.64127
3.64127
3.64127
3.64127
3.64127
3.64127
3.64127
6.75102e-06
6.75102e-06
6.75102e-06
6.75102e-06
6.75102e-06
6.75102e-06
6.75102e-06
6.75102e-06
6.75102e-06
6.75102e-06
5.95771e-06
5.06497e-06
3.7445e-06
2.13091e-06
0
0
0
0
0
0
0
0
0
0
0
0
0
0
0
0
0
0
0
0
0
0
0
1.21493
2.35469
3.64127
3.64127
3.64127
3.64127
3.64127
3.64127
3.64127
6.75102e-06
6.75102e-06
6.75102e-06
6.75102e-06
6.75102e-06
6.75102e-06
6.75102e-06
6.75102e-06
6.75102e-06
6.75102e-06
5.629e-06
4.58303e-06
3.25176e-06
1.78938e-06
0
0
0
0
0
0
0
0
0
0
0
0
0
0
0
0
0
0
0
0
0
0
0
1.28088
2.45969
3.64127
3.64127
3.64127
3.64127
3.64127
3.64127
3.64127
6.75102e-06
6.75102e-06
6.75102e-06
6.75102e-06
6.75102e-06
6.75102e-06
6.75102e-06
6.75102e-06
6.75102e-06
6.75102e-06
5.29401e-06
4.17074e-06
2.88287e-06
1.55678e-06
0
0
0
0
0
0
0
0
0
0
0
0
0
0
0
0
0
0
0
0
0
0
0
1.36962
2.60342
3.64127
3.64127
3.64127
3.64127
3.64127
3.64127
3.64127
5.43391e-06
5.43382e-06
5.43343e-06
5.43244e-06
5.42997e-06
5.4238e-06
5.40786e-06
5.36773e-06
5.2676e-06
4.88252e-06
4.23529e-06
3.46466e-06
2.42216e-06
1.30715e-06
0
0
0
0
0
0
0
0
0
0
0
0
0
0
0
0
0
0
0
0
0
0
0
1.55176
2.98778
4.30158
4.62321
4.71923
4.74475
4.75145
4.75335
4.75381
4.1191e-06
4.1191e-06
4.1191e-06
4.1191e-06
4.1191e-06
4.1191e-06
4.1191e-06
4.1191e-06
4.1191e-06
4.1191e-06
3.61261e-06
2.97749e-06
2.08844e-06
1.12715e-06
0
0
0
0
0
0
0
0
0
0
0
0
0
0
0
0
0
0
0
0
0
0
0
1.78001
3.54489
5.8626
5.86261
5.86261
5.86261
5.86261
5.86261
5.86261
4.1191e-06
4.1191e-06
4.1191e-06
4.1191e-06
4.1191e-06
4.1191e-06
4.1191e-06
4.1191e-06
4.1191e-06
4.1191e-06
3.42411e-06
2.75041e-06
1.90089e-06
1.01882e-06
0
0
0
0
0
0
0
0
0
0
0
0
0
0
0
0
0
0
0
0
0
0
0
1.94639
3.81213
5.86261
5.86261
5.86261
5.86261
5.86261
5.86261
5.86261
4.1191e-06
4.1191e-06
4.1191e-06
4.1191e-06
4.1191e-06
4.1191e-06
4.1191e-06
4.1191e-06
4.1191e-06
4.1191e-06
3.2269e-06
2.51062e-06
1.70112e-06
9.0301e-07
0
0
0
0
0
0
0
0
0
0
0
0
0
0
0
0
0
0
0
0
0
0
0
2.19641
4.19034
5.86261
5.86261
5.86261
5.86261
5.86261
5.86261
5.86261
3.47333e-06
3.47327e-06
3.47297e-06
3.47229e-06
3.47062e-06
3.46651e-06
3.45597e-06
3.42948e-06
3.3634e-06
3.10949e-06
2.6834e-06
2.17939e-06
1.50892e-06
8.07911e-07
0
0
0
0
0
0
0
0
0
0
0
0
0
0
0
0
0
0
0
0
0
0
0
2.50208
4.8835
7.14854
7.70263
7.86775
7.91149
7.9229
7.92609
7.92685
2.82516e-06
2.82516e-06
2.82516e-06
2.82516e-06
2.82516e-06
2.82516e-06
2.82516e-06
2.82516e-06
2.82516e-06
2.82516e-06
2.41665e-06
1.96642e-06
1.36677e-06
7.33659e-07
0
0
0
0
0
0
0
0
0
0
0
0
0
0
0
0
0
0
0
0
0
0
0
2.82685
5.79861
9.99955
9.99955
9.99955
9.99955
9.99955
9.99955
9.99955
2.82516e-06
2.82516e-06
2.82516e-06
2.82516e-06
2.82516e-06
2.82516e-06
2.82516e-06
2.82516e-06
2.82516e-06
2.82516e-06
2.32932e-06
1.85873e-06
1.27726e-06
6.82134e-07
0
0
0
0
0
0
0
0
0
0
0
0
0
0
0
0
0
0
0
0
0
0
0
2.94572
6.03541
9.99955
9.99955
9.99955
9.99955
9.99955
9.99955
9.99955
2.82516e-06
2.82516e-06
2.82516e-06
2.82516e-06
2.82516e-06
2.82516e-06
2.82516e-06
2.82516e-06
2.82516e-06
2.82516e-06
2.2568e-06
1.77494e-06
1.2102e-06
6.44117e-07
0
0
0
0
0
0
0
0
0
0
0
0
0
0
0
0
0
0
0
0
0
0
0
2.81869
5.78619
9.99955
9.99955
9.99955
9.99955
9.99955
9.99955
9.99955
2.63715e-06
2.6371e-06
2.63687e-06
2.63635e-06
2.63507e-06
2.63194e-06
2.62391e-06
2.60372e-06
2.55339e-06
2.36003e-06
2.0355e-06
1.65246e-06
1.14367e-06
6.12202e-07
0
0
0
0
0
0
0
0
0
0
0
0
0
0
0
0
0
0
0
0
0
0
0
2.48334
4.84728
7.09359
7.64342
7.80738
7.85086
7.86221
7.86538
7.86614
2.44841e-06
2.44841e-06
2.44841e-06
2.44841e-06
2.44841e-06
2.44841e-06
2.44841e-06
2.44841e-06
2.44841e-06
2.44841e-06
2.02272e-06
1.61827e-06
1.11417e-06
5.95565e-07
0
0
0
0
0
0
0
0
0
0
0
0
0
0
0
0
0
0
0
0
0
0
0
2.16662
4.12998
5.73661
5.73661
5.73661
5.73661
5.73661
5.73662
5.73662
2.44841e-06
2.44841e-06
2.44841e-06
2.44841e-06
2.44841e-06
2.44841e-06
2.44841e-06
2.44841e-06
2.44841e-06
2.44841e-06
2.01856e-06
1.61065e-06
1.10672e-06
5.91032e-07
0
0
0
0
0
0
0
0
0
0
0
0
0
0
0
0
0
0
0
0
0
0
0
1.93481
3.7718
5.73661
5.73661
5.73661
5.73661
5.73661
5.73661
5.73661
2.44841e-06
2.44841e-06
2.44841e-06
2.44841e-06
2.44841e-06
2.44841e-06
2.44841e-06
2.44841e-06
2.44841e-06
2.44841e-06
2.02706e-06
1.62353e-06
1.11855e-06
5.98104e-07
0
0
0
0
0
0
0
0
0
0
0
0
0
0
0
0
0
0
0
0
0
0
0
1.72676
3.44906
5.73661
5.73661
5.73661
5.73661
5.73661
5.73661
5.73661
2.65891e-06
2.65886e-06
2.65863e-06
2.65811e-06
2.65682e-06
2.65367e-06
2.64558e-06
2.62524e-06
2.57455e-06
2.37979e-06
2.0529e-06
1.66695e-06
1.15402e-06
6.17868e-07
0
0
0
0
0
0
0
0
0
0
0
0
0
0
0
0
0
0
0
0
0
0
0
1.4833
2.8581
4.11806
4.42623
4.51807
4.54242
4.54878
4.55056
4.55098
2.86868e-06
2.86868e-06
2.86868e-06
2.86868e-06
2.86868e-06
2.86868e-06
2.86868e-06
2.86868e-06
2.86868e-06
2.86868e-06
2.28916e-06
1.79993e-06
1.22748e-06
6.53511e-07
0
0
0
0
0
0
0
0
0
0
0
0
0
0
0
0
0
0
0
0
0
0
0
1.28213
2.43098
3.36414
3.36414
3.36414
3.36414
3.36414
3.36414
3.36414
2.86868e-06